<?xml version="1.0" encoding="UTF-8"?>

<!-- generated on 2025-10-16 11:33:14 by Eclipse SUMO GUI Version 1.24.0
<sumoConfiguration xmlns:xsi="http://www.w3.org/2001/XMLSchema-instance" xsi:noNamespaceSchemaLocation="http://sumo.dlr.de/xsd/sumoConfiguration.xsd">

    <input>
        <net-file value="C:\NIKOLA\SUMO\belgrade\actuated_signal_control\belgrade_intersection.net.xml"/>
        <route-files value="C:\NIKOLA\SUMO\belgrade\actuated_signal_control\belgrade_intersection.rou.xml"/>
    </input>

    <output>
        <tripinfo-output value="C:\NIKOLA\SUMO\belgrade\actuated_signal_control\tripinfo.xml"/>
        <statistic-output value="C:/NIKOLA/SUMO/belgrade/actuated_signal_control/statistics.xml"/>
    </output>

    <time>
        <step-length value="0.05"/>
    </time>

    <processing>
        <lateral-resolution value="0.1"/>
    </processing>

    <report>
        <duration-log.statistics value="true"/>
    </report>

    <traci_server>
        <remote-port value="53994"/>
    </traci_server>

    <gui_only>
        <delay value="1000"/>
    </gui_only>

</sumoConfiguration>
-->

<tripinfos xmlns:xsi="http://www.w3.org/2001/XMLSchema-instance" xsi:noNamespaceSchemaLocation="http://sumo.dlr.de/xsd/tripinfo_file.xsd">
    <tripinfo id="f_1.0" depart="1.10" departLane="E0_2" departPos="5.10" departPosLat="0.00" departSpeed="0.00" departDelay="0.03" arrival="23.45" arrivalLane="E2.30_2" arrivalPos="126.83" arrivalPosLat="0.00" arrivalSpeed="15.43" duration="22.35" routeLength="288.94" waitingTime="0.00" waitingCount="0" stopTime="0.00" timeLoss="3.69" rerouteNo="1" devices="tripinfo_f_1.0 routing_f_1.0" vType="DEFAULT_VEHTYPE" speedFactor="1.11" vaporized=""/>
    <tripinfo id="f_0.0" depart="2.60" departLane="E0_1" departPos="5.10" departPosLat="0.00" departSpeed="0.00" departDelay="0.00" arrival="28.00" arrivalLane="E7_1" arrivalPos="123.31" arrivalPosLat="0.00" arrivalSpeed="13.50" duration="25.40" routeLength="279.76" waitingTime="0.00" waitingCount="0" stopTime="0.00" timeLoss="4.70" rerouteNo="1" devices="tripinfo_f_0.0 routing_f_0.0" vType="DEFAULT_VEHTYPE" speedFactor="0.97" vaporized=""/>
    <tripinfo id="f_1.1" depart="3.70" departLane="E0_2" departPos="5.10" departPosLat="0.00" departSpeed="0.00" departDelay="1.39" arrival="30.00" arrivalLane="E2.30_2" arrivalPos="126.83" arrivalPosLat="0.00" arrivalSpeed="12.51" duration="26.30" routeLength="288.94" waitingTime="0.00" waitingCount="0" stopTime="0.00" timeLoss="3.18" rerouteNo="1" devices="tripinfo_f_1.1 routing_f_1.1" vType="DEFAULT_VEHTYPE" speedFactor="0.90" vaporized=""/>
    <tripinfo id="f_1.2" depart="6.35" departLane="E0_2" departPos="5.10" departPosLat="0.00" departSpeed="0.00" departDelay="1.64" arrival="31.45" arrivalLane="E2.30_2" arrivalPos="126.83" arrivalPosLat="0.00" arrivalSpeed="15.53" duration="25.10" routeLength="288.94" waitingTime="0.00" waitingCount="0" stopTime="0.00" timeLoss="7.43" rerouteNo="1" devices="tripinfo_f_1.2 routing_f_1.2" vType="DEFAULT_VEHTYPE" speedFactor="1.18" vaporized=""/>
    <tripinfo id="f_1.3" depart="8.95" departLane="E0_2" departPos="5.10" departPosLat="0.00" departSpeed="0.00" departDelay="0.05" arrival="33.25" arrivalLane="E2.30_2" arrivalPos="126.83" arrivalPosLat="0.00" arrivalSpeed="13.82" duration="24.30" routeLength="288.94" waitingTime="0.00" waitingCount="0" stopTime="0.00" timeLoss="3.43" rerouteNo="1" devices="tripinfo_f_1.3 routing_f_1.3" vType="DEFAULT_VEHTYPE" speedFactor="1.00" vaporized=""/>
    <tripinfo id="f_8.0" depart="4.05" departLane="E4_1" departPos="5.10" departPosLat="0.00" departSpeed="0.00" departDelay="0.04" arrival="44.85" arrivalLane="E1_1" arrivalPos="127.51" arrivalPosLat="0.00" arrivalSpeed="13.70" duration="40.80" routeLength="258.47" waitingTime="13.60" waitingCount="1" stopTime="0.00" timeLoss="20.80" rerouteNo="0" devices="tripinfo_f_8.0 routing_f_8.0" vType="DEFAULT_VEHTYPE" speedFactor="0.99" vaporized=""/>
    <tripinfo id="f_8.1" depart="11.80" departLane="E4_1" departPos="5.10" departPosLat="0.00" departSpeed="0.00" departDelay="0.03" arrival="46.30" arrivalLane="E1_1" arrivalPos="127.51" arrivalPosLat="0.00" arrivalSpeed="15.68" duration="34.50" routeLength="258.47" waitingTime="2.95" waitingCount="1" stopTime="0.00" timeLoss="16.98" rerouteNo="0" devices="tripinfo_f_8.1 routing_f_8.1" vType="DEFAULT_VEHTYPE" speedFactor="1.13" vaporized=""/>
    <tripinfo id="f_7.0" depart="11.10" departLane="E6_1" departPos="5.10" departPosLat="0.00" departSpeed="0.00" departDelay="0.02" arrival="46.95" arrivalLane="E1_2" arrivalPos="127.51" arrivalPosLat="0.00" arrivalSpeed="14.62" duration="35.85" routeLength="277.23" waitingTime="7.05" waitingCount="1" stopTime="0.00" timeLoss="16.91" rerouteNo="0" devices="tripinfo_f_7.0 routing_f_7.0" vType="DEFAULT_VEHTYPE" speedFactor="1.05" vaporized=""/>
    <tripinfo id="f_7.1" depart="13.75" departLane="E6_1" departPos="5.10" departPosLat="0.00" departSpeed="0.00" departDelay="0.24" arrival="49.65" arrivalLane="E1_2" arrivalPos="127.51" arrivalPosLat="0.00" arrivalSpeed="13.29" duration="35.90" routeLength="277.23" waitingTime="1.20" waitingCount="1" stopTime="0.00" timeLoss="15.01" rerouteNo="0" devices="tripinfo_f_7.1 routing_f_7.1" vType="DEFAULT_VEHTYPE" speedFactor="0.96" vaporized=""/>
    <tripinfo id="f_5.0" depart="17.85" departLane="E6_1" departPos="5.10" departPosLat="0.00" departSpeed="0.00" departDelay="0.05" arrival="50.30" arrivalLane="E2.30_1" arrivalPos="126.83" arrivalPosLat="0.00" arrivalSpeed="12.12" duration="32.45" routeLength="253.57" waitingTime="0.00" waitingCount="0" stopTime="0.00" timeLoss="10.16" rerouteNo="0" devices="tripinfo_f_5.0 routing_f_5.0" vType="DEFAULT_VEHTYPE" speedFactor="0.87" vaporized=""/>
    <tripinfo id="f_7.2" depart="20.50" departLane="E6_1" departPos="5.10" departPosLat="0.00" departSpeed="0.00" departDelay="0.04" arrival="52.00" arrivalLane="E1_2" arrivalPos="127.51" arrivalPosLat="0.00" arrivalSpeed="16.90" duration="31.50" routeLength="277.23" waitingTime="0.00" waitingCount="0" stopTime="0.00" timeLoss="15.12" rerouteNo="0" devices="tripinfo_f_7.2 routing_f_7.2" vType="DEFAULT_VEHTYPE" speedFactor="1.22" vaporized=""/>
    <tripinfo id="f_8.2" depart="27.25" departLane="E4_1" departPos="5.10" departPosLat="0.00" departSpeed="0.00" departDelay="0.03" arrival="54.90" arrivalLane="E1_1" arrivalPos="127.51" arrivalPosLat="0.00" arrivalSpeed="11.85" duration="27.65" routeLength="258.47" waitingTime="0.00" waitingCount="0" stopTime="0.00" timeLoss="4.51" rerouteNo="0" devices="tripinfo_f_8.2 routing_f_8.2" vType="DEFAULT_VEHTYPE" speedFactor="0.86" vaporized=""/>
    <tripinfo id="f_4.0" depart="18.30" departLane="E3_2" departPos="5.10" departPosLat="0.00" departSpeed="0.00" departDelay="0.02" arrival="63.70" arrivalLane="E1_2" arrivalPos="127.51" arrivalPosLat="0.00" arrivalSpeed="15.18" duration="45.40" routeLength="298.95" waitingTime="16.55" waitingCount="1" stopTime="0.00" timeLoss="25.74" rerouteNo="0" devices="tripinfo_f_4.0 routing_f_4.0" vType="DEFAULT_VEHTYPE" speedFactor="1.10" vaporized=""/>
    <tripinfo id="f_4.1" depart="20.95" departLane="E3_2" departPos="5.10" departPosLat="0.00" departSpeed="0.00" departDelay="0.01" arrival="64.40" arrivalLane="E1_1" arrivalPos="127.51" arrivalPosLat="-0.00" arrivalSpeed="13.74" duration="43.45" routeLength="298.95" waitingTime="9.10" waitingCount="1" stopTime="0.00" timeLoss="21.76" rerouteNo="0" devices="tripinfo_f_4.1 routing_f_4.1" vType="DEFAULT_VEHTYPE" speedFactor="0.99" vaporized=""/>
    <tripinfo id="f_0.1" depart="20.50" departLane="E0_1" departPos="5.10" departPosLat="0.00" departSpeed="0.00" departDelay="0.04" arrival="64.80" arrivalLane="E7_1" arrivalPos="123.31" arrivalPosLat="0.00" arrivalSpeed="13.31" duration="44.30" routeLength="279.76" waitingTime="14.50" waitingCount="1" stopTime="0.00" timeLoss="23.28" rerouteNo="1" devices="tripinfo_f_0.1 routing_f_0.1" vType="DEFAULT_VEHTYPE" speedFactor="0.96" vaporized=""/>
    <tripinfo id="f_1.4" depart="18.45" departLane="E0_2" departPos="5.10" departPosLat="0.00" departSpeed="0.00" departDelay="0.71" arrival="65.70" arrivalLane="E2.30_1" arrivalPos="126.83" arrivalPosLat="-0.00" arrivalSpeed="11.96" duration="47.25" routeLength="288.94" waitingTime="16.10" waitingCount="1" stopTime="0.00" timeLoss="23.20" rerouteNo="1" devices="tripinfo_f_1.4 routing_f_1.4" vType="DEFAULT_VEHTYPE" speedFactor="0.87" vaporized=""/>
    <tripinfo id="f_1.5" depart="21.05" departLane="E0_2" departPos="5.10" departPosLat="0.00" departSpeed="0.00" departDelay="1.21" arrival="66.40" arrivalLane="E2.30_2" arrivalPos="126.83" arrivalPosLat="0.00" arrivalSpeed="12.90" duration="45.35" routeLength="288.94" waitingTime="10.90" waitingCount="1" stopTime="0.00" timeLoss="22.99" rerouteNo="1" devices="tripinfo_f_1.5 routing_f_1.5" vType="DEFAULT_VEHTYPE" speedFactor="0.93" vaporized=""/>
    <tripinfo id="f_0.2" depart="23.15" departLane="E0_1" departPos="5.10" departPosLat="0.00" departSpeed="0.00" departDelay="0.01" arrival="66.50" arrivalLane="E7_1" arrivalPos="123.31" arrivalPosLat="0.00" arrivalSpeed="13.58" duration="43.35" routeLength="279.76" waitingTime="8.85" waitingCount="1" stopTime="0.00" timeLoss="22.81" rerouteNo="1" devices="tripinfo_f_0.2 routing_f_0.2" vType="DEFAULT_VEHTYPE" speedFactor="0.98" vaporized=""/>
    <tripinfo id="f_1.6" depart="23.65" departLane="E0_2" departPos="5.10" departPosLat="0.00" departSpeed="0.00" departDelay="3.61" arrival="67.95" arrivalLane="E2.30_2" arrivalPos="126.83" arrivalPosLat="0.00" arrivalSpeed="13.18" duration="44.30" routeLength="288.94" waitingTime="8.55" waitingCount="1" stopTime="0.00" timeLoss="22.43" rerouteNo="1" devices="tripinfo_f_1.6 routing_f_1.6" vType="DEFAULT_VEHTYPE" speedFactor="0.95" vaporized=""/>
    <tripinfo id="f_4.3" depart="40.10" departLane="E3_2" departPos="5.10" departPosLat="0.00" departSpeed="0.00" departDelay="0.03" arrival="68.25" arrivalLane="E1_2" arrivalPos="127.51" arrivalPosLat="0.00" arrivalSpeed="12.96" duration="28.15" routeLength="298.95" waitingTime="0.00" waitingCount="0" stopTime="0.00" timeLoss="5.10" rerouteNo="0" devices="tripinfo_f_4.3 routing_f_4.3" vType="DEFAULT_VEHTYPE" speedFactor="0.94" vaporized=""/>
    <tripinfo id="f_3.0" depart="41.30" departLane="E3_1" departPos="5.10" departPosLat="0.00" departSpeed="0.00" departDelay="0.00" arrival="68.40" arrivalLane="E5_1" arrivalPos="143.54" arrivalPosLat="0.00" arrivalSpeed="14.27" duration="27.10" routeLength="312.58" waitingTime="0.00" waitingCount="0" stopTime="0.00" timeLoss="5.23" rerouteNo="0" devices="tripinfo_f_3.0 routing_f_3.0" vType="DEFAULT_VEHTYPE" speedFactor="1.03" vaporized=""/>
    <tripinfo id="f_1.7" depart="26.30" departLane="E0_2" departPos="5.10" departPosLat="0.00" departSpeed="0.00" departDelay="5.65" arrival="68.55" arrivalLane="E2.30_1" arrivalPos="126.83" arrivalPosLat="-0.00" arrivalSpeed="13.29" duration="42.25" routeLength="288.94" waitingTime="6.60" waitingCount="1" stopTime="0.00" timeLoss="20.51" rerouteNo="1" devices="tripinfo_f_1.7 routing_f_1.7" vType="DEFAULT_VEHTYPE" speedFactor="0.96" vaporized=""/>
    <tripinfo id="f_4.2" depart="29.35" departLane="E3_2" departPos="5.10" departPosLat="0.00" departSpeed="0.00" departDelay="0.00" arrival="68.60" arrivalLane="E1_1" arrivalPos="127.51" arrivalPosLat="-0.00" arrivalSpeed="10.62" duration="39.25" routeLength="298.95" waitingTime="0.80" waitingCount="1" stopTime="0.00" timeLoss="11.21" rerouteNo="0" devices="tripinfo_f_4.2 routing_f_4.2" vType="DEFAULT_VEHTYPE" speedFactor="0.77" vaporized=""/>
    <tripinfo id="f_1.8" depart="28.90" departLane="E0_2" departPos="5.10" departPosLat="0.00" departSpeed="0.00" departDelay="6.34" arrival="69.95" arrivalLane="E2.30_1" arrivalPos="126.83" arrivalPosLat="0.00" arrivalSpeed="15.93" duration="41.05" routeLength="288.94" waitingTime="4.75" waitingCount="1" stopTime="0.00" timeLoss="24.01" rerouteNo="1" devices="tripinfo_f_1.8 routing_f_1.8" vType="DEFAULT_VEHTYPE" speedFactor="1.22" vaporized=""/>
    <tripinfo id="f_3.1" depart="44.15" departLane="E3_1" departPos="5.10" departPosLat="0.00" departSpeed="0.00" departDelay="0.03" arrival="70.10" arrivalLane="E5_1" arrivalPos="143.54" arrivalPosLat="0.00" arrivalSpeed="16.42" duration="25.95" routeLength="312.58" waitingTime="0.00" waitingCount="0" stopTime="0.00" timeLoss="6.94" rerouteNo="0" devices="tripinfo_f_3.1 routing_f_3.1" vType="DEFAULT_VEHTYPE" speedFactor="1.19" vaporized=""/>
    <tripinfo id="f_1.12" depart="44.60" departLane="E0_2" departPos="5.10" departPosLat="0.00" departSpeed="0.00" departDelay="0.05" arrival="70.55" arrivalLane="E2.30_2" arrivalPos="126.83" arrivalPosLat="-0.00" arrivalSpeed="13.98" duration="25.95" routeLength="288.94" waitingTime="0.00" waitingCount="0" stopTime="0.00" timeLoss="5.35" rerouteNo="1" devices="tripinfo_f_1.12 routing_f_1.12" vType="DEFAULT_VEHTYPE" speedFactor="1.01" vaporized=""/>
    <tripinfo id="f_1.9" depart="33.40" departLane="E0_2" departPos="5.10" departPosLat="0.00" departSpeed="0.00" departDelay="0.05" arrival="71.30" arrivalLane="E2.30_1" arrivalPos="126.83" arrivalPosLat="-0.00" arrivalSpeed="15.87" duration="37.90" routeLength="288.94" waitingTime="2.20" waitingCount="1" stopTime="0.00" timeLoss="19.66" rerouteNo="1" devices="tripinfo_f_1.9 routing_f_1.9" vType="DEFAULT_VEHTYPE" speedFactor="1.14" vaporized=""/>
    <tripinfo id="f_4.4" depart="45.30" departLane="E3_2" departPos="5.10" departPosLat="0.00" departSpeed="0.00" departDelay="0.04" arrival="71.60" arrivalLane="E1_2" arrivalPos="127.51" arrivalPosLat="0.00" arrivalSpeed="12.94" duration="26.30" routeLength="298.95" waitingTime="0.00" waitingCount="0" stopTime="0.00" timeLoss="3.28" rerouteNo="0" devices="tripinfo_f_4.4 routing_f_4.4" vType="DEFAULT_VEHTYPE" speedFactor="0.94" vaporized=""/>
    <tripinfo id="f_1.10" depart="36.00" departLane="E0_2" departPos="5.10" departPosLat="0.00" departSpeed="0.00" departDelay="1.46" arrival="72.80" arrivalLane="E2.30_1" arrivalPos="126.83" arrivalPosLat="-0.00" arrivalSpeed="14.50" duration="36.80" routeLength="288.94" waitingTime="0.00" waitingCount="0" stopTime="0.00" timeLoss="16.96" rerouteNo="1" devices="tripinfo_f_1.10 routing_f_1.10" vType="DEFAULT_VEHTYPE" speedFactor="1.05" vaporized=""/>
    <tripinfo id="f_1.11" depart="38.60" departLane="E0_2" departPos="5.10" departPosLat="0.00" departSpeed="0.00" departDelay="0.58" arrival="74.20" arrivalLane="E2.30_1" arrivalPos="126.83" arrivalPosLat="-0.00" arrivalSpeed="15.81" duration="35.60" routeLength="288.94" waitingTime="0.00" waitingCount="0" stopTime="0.00" timeLoss="17.32" rerouteNo="1" devices="tripinfo_f_1.11 routing_f_1.11" vType="DEFAULT_VEHTYPE" speedFactor="1.14" vaporized=""/>
    <tripinfo id="f_1.13" depart="49.30" departLane="E0_2" departPos="5.10" departPosLat="0.00" departSpeed="0.00" departDelay="0.03" arrival="74.20" arrivalLane="E2.30_2" arrivalPos="126.83" arrivalPosLat="0.00" arrivalSpeed="13.32" duration="24.90" routeLength="288.94" waitingTime="0.00" waitingCount="0" stopTime="0.00" timeLoss="3.30" rerouteNo="1" devices="tripinfo_f_1.13 routing_f_1.13" vType="DEFAULT_VEHTYPE" speedFactor="0.96" vaporized=""/>
    <tripinfo id="f_1.14" depart="51.90" departLane="E0_2" departPos="5.10" departPosLat="0.00" departSpeed="0.00" departDelay="0.87" arrival="75.65" arrivalLane="E2.30_2" arrivalPos="126.83" arrivalPosLat="0.00" arrivalSpeed="16.25" duration="23.75" routeLength="288.94" waitingTime="0.00" waitingCount="0" stopTime="0.00" timeLoss="6.56" rerouteNo="1" devices="tripinfo_f_1.14 routing_f_1.14" vType="DEFAULT_VEHTYPE" speedFactor="1.21" vaporized=""/>
    <tripinfo id="f_0.3" depart="50.10" departLane="E0_1" departPos="5.10" departPosLat="0.00" departSpeed="0.00" departDelay="0.00" arrival="76.00" arrivalLane="E7_1" arrivalPos="123.31" arrivalPosLat="0.00" arrivalSpeed="14.06" duration="25.90" routeLength="279.76" waitingTime="0.00" waitingCount="0" stopTime="0.00" timeLoss="6.01" rerouteNo="1" devices="tripinfo_f_0.3 routing_f_0.3" vType="DEFAULT_VEHTYPE" speedFactor="1.01" vaporized=""/>
    <tripinfo id="f_1.15" depart="54.55" departLane="E0_2" departPos="5.10" departPosLat="0.00" departSpeed="0.00" departDelay="2.86" arrival="77.75" arrivalLane="E2.30_2" arrivalPos="126.83" arrivalPosLat="0.00" arrivalSpeed="14.68" duration="23.20" routeLength="288.94" waitingTime="0.00" waitingCount="0" stopTime="0.00" timeLoss="3.53" rerouteNo="1" devices="tripinfo_f_1.15 routing_f_1.15" vType="DEFAULT_VEHTYPE" speedFactor="1.06" vaporized=""/>
    <tripinfo id="f_4.5" depart="55.70" departLane="E3_2" departPos="5.10" departPosLat="0.00" departSpeed="0.00" departDelay="0.03" arrival="80.00" arrivalLane="E1_2" arrivalPos="127.51" arrivalPosLat="0.00" arrivalSpeed="14.38" duration="24.30" routeLength="298.95" waitingTime="0.00" waitingCount="0" stopTime="0.00" timeLoss="3.56" rerouteNo="0" devices="tripinfo_f_4.5 routing_f_4.5" vType="DEFAULT_VEHTYPE" speedFactor="1.04" vaporized=""/>
    <tripinfo id="f_1.16" depart="59.35" departLane="E0_2" departPos="5.10" departPosLat="0.00" departSpeed="0.00" departDelay="0.05" arrival="84.35" arrivalLane="E2.30_2" arrivalPos="126.83" arrivalPosLat="0.00" arrivalSpeed="13.28" duration="25.00" routeLength="288.94" waitingTime="0.00" waitingCount="0" stopTime="0.00" timeLoss="3.25" rerouteNo="1" devices="tripinfo_f_1.16 routing_f_1.16" vType="DEFAULT_VEHTYPE" speedFactor="0.96" vaporized=""/>
    <tripinfo id="f_4.7" depart="60.95" departLane="E3_2" departPos="5.10" departPosLat="0.00" departSpeed="0.00" departDelay="0.98" arrival="84.65" arrivalLane="E1_2" arrivalPos="127.51" arrivalPosLat="0.00" arrivalSpeed="15.32" duration="23.70" routeLength="298.95" waitingTime="0.00" waitingCount="0" stopTime="0.00" timeLoss="4.21" rerouteNo="0" devices="tripinfo_f_4.7 routing_f_4.7" vType="DEFAULT_VEHTYPE" speedFactor="1.11" vaporized=""/>
    <tripinfo id="f_4.6" depart="58.35" departLane="E3_2" departPos="5.10" departPosLat="0.00" departSpeed="0.00" departDelay="0.33" arrival="84.75" arrivalLane="E1_1" arrivalPos="127.51" arrivalPosLat="-0.00" arrivalSpeed="12.83" duration="26.40" routeLength="298.95" waitingTime="0.00" waitingCount="0" stopTime="0.00" timeLoss="3.11" rerouteNo="0" devices="tripinfo_f_4.6 routing_f_4.6" vType="DEFAULT_VEHTYPE" speedFactor="0.92" vaporized=""/>
    <tripinfo id="f_4.8" depart="63.55" departLane="E3_2" departPos="5.10" departPosLat="0.00" departSpeed="0.00" departDelay="1.43" arrival="86.10" arrivalLane="E1_2" arrivalPos="127.51" arrivalPosLat="0.00" arrivalSpeed="16.56" duration="22.55" routeLength="298.95" waitingTime="0.00" waitingCount="0" stopTime="0.00" timeLoss="4.46" rerouteNo="0" devices="tripinfo_f_4.8 routing_f_4.8" vType="DEFAULT_VEHTYPE" speedFactor="1.19" vaporized=""/>
    <tripinfo id="f_1.18" depart="64.65" departLane="E0_2" departPos="5.10" departPosLat="0.00" departSpeed="0.00" departDelay="3.51" arrival="90.20" arrivalLane="E2.30_2" arrivalPos="126.83" arrivalPosLat="0.00" arrivalSpeed="12.96" duration="25.55" routeLength="288.94" waitingTime="0.00" waitingCount="0" stopTime="0.00" timeLoss="3.28" rerouteNo="1" devices="tripinfo_f_1.18 routing_f_1.18" vType="DEFAULT_VEHTYPE" speedFactor="0.94" vaporized=""/>
    <tripinfo id="f_1.17" depart="62.00" departLane="E0_2" departPos="5.10" departPosLat="0.00" departSpeed="0.00" departDelay="1.07" arrival="90.75" arrivalLane="E2.30_1" arrivalPos="126.83" arrivalPosLat="-0.00" arrivalSpeed="11.09" duration="28.75" routeLength="288.94" waitingTime="0.00" waitingCount="0" stopTime="0.00" timeLoss="2.72" rerouteNo="1" devices="tripinfo_f_1.17 routing_f_1.17" vType="DEFAULT_VEHTYPE" speedFactor="0.80" vaporized=""/>
    <tripinfo id="f_1.19" depart="67.25" departLane="E0_2" departPos="5.10" departPosLat="0.00" departSpeed="0.00" departDelay="5.98" arrival="91.70" arrivalLane="E2.30_2" arrivalPos="126.83" arrivalPosLat="0.00" arrivalSpeed="14.18" duration="24.45" routeLength="288.94" waitingTime="0.00" waitingCount="0" stopTime="0.00" timeLoss="4.05" rerouteNo="1" devices="tripinfo_f_1.19 routing_f_1.19" vType="DEFAULT_VEHTYPE" speedFactor="1.02" vaporized=""/>
    <tripinfo id="f_1.20" depart="69.90" departLane="E0_2" departPos="5.10" departPosLat="0.00" departSpeed="0.00" departDelay="4.92" arrival="93.25" arrivalLane="E2.30_2" arrivalPos="126.83" arrivalPosLat="0.00" arrivalSpeed="14.72" duration="23.35" routeLength="288.94" waitingTime="0.00" waitingCount="0" stopTime="0.00" timeLoss="3.76" rerouteNo="1" devices="tripinfo_f_1.20 routing_f_1.20" vType="DEFAULT_VEHTYPE" speedFactor="1.06" vaporized=""/>
    <tripinfo id="f_1.21" depart="72.55" departLane="E0_2" departPos="5.10" departPosLat="0.00" departSpeed="0.00" departDelay="5.86" arrival="96.75" arrivalLane="E2.30_2" arrivalPos="126.83" arrivalPosLat="0.00" arrivalSpeed="13.82" duration="24.20" routeLength="288.94" waitingTime="0.00" waitingCount="0" stopTime="0.00" timeLoss="3.38" rerouteNo="1" devices="tripinfo_f_1.21 routing_f_1.21" vType="DEFAULT_VEHTYPE" speedFactor="1.00" vaporized=""/>
    <tripinfo id="f_2.0" depart="15.80" departLane="E0_2" departPos="5.10" departPosLat="0.00" departSpeed="0.00" departDelay="0.01" arrival="97.65" arrivalLane="E5_1" arrivalPos="143.54" arrivalPosLat="0.00" arrivalSpeed="10.31" duration="81.85" routeLength="289.23" waitingTime="46.60" waitingCount="1" stopTime="0.00" timeLoss="52.20" rerouteNo="1" devices="tripinfo_f_2.0 routing_f_2.0" vType="DEFAULT_VEHTYPE" speedFactor="0.74" vaporized=""/>
    <tripinfo id="f_8.3" depart="30.90" departLane="E4_1" departPos="5.10" departPosLat="0.00" departSpeed="0.00" departDelay="0.02" arrival="105.30" arrivalLane="E1_1" arrivalPos="127.51" arrivalPosLat="0.00" arrivalSpeed="13.11" duration="74.40" routeLength="258.47" waitingTime="46.30" waitingCount="1" stopTime="0.00" timeLoss="53.47" rerouteNo="0" devices="tripinfo_f_8.3 routing_f_8.3" vType="DEFAULT_VEHTYPE" speedFactor="0.95" vaporized=""/>
    <tripinfo id="f_7.3" depart="37.40" departLane="E6_1" departPos="5.10" departPosLat="0.00" departSpeed="0.00" departDelay="0.04" arrival="106.85" arrivalLane="E1_2" arrivalPos="127.51" arrivalPosLat="0.00" arrivalSpeed="14.58" duration="69.45" routeLength="277.23" waitingTime="40.60" waitingCount="1" stopTime="0.00" timeLoss="50.49" rerouteNo="0" devices="tripinfo_f_7.3 routing_f_7.3" vType="DEFAULT_VEHTYPE" speedFactor="1.05" vaporized=""/>
    <tripinfo id="f_6.0" depart="67.95" departLane="E6_1" departPos="5.10" departPosLat="0.00" departSpeed="0.00" departDelay="0.02" arrival="107.45" arrivalLane="E5_1" arrivalPos="143.54" arrivalPosLat="0.00" arrivalSpeed="16.22" duration="39.50" routeLength="295.35" waitingTime="7.25" waitingCount="1" stopTime="0.00" timeLoss="21.29" rerouteNo="0" devices="tripinfo_f_6.0 routing_f_6.0" vType="DEFAULT_VEHTYPE" speedFactor="1.17" vaporized=""/>
    <tripinfo id="f_8.4" depart="33.55" departLane="E4_1" departPos="5.10" departPosLat="0.00" departSpeed="0.00" departDelay="2.06" arrival="107.90" arrivalLane="E1_1" arrivalPos="127.51" arrivalPosLat="0.00" arrivalSpeed="12.59" duration="74.35" routeLength="258.47" waitingTime="40.85" waitingCount="1" stopTime="0.00" timeLoss="52.53" rerouteNo="0" devices="tripinfo_f_8.4 routing_f_8.4" vType="DEFAULT_VEHTYPE" speedFactor="0.91" vaporized=""/>
    <tripinfo id="f_8.5" depart="79.40" departLane="E4_1" departPos="5.10" departPosLat="0.00" departSpeed="0.00" departDelay="0.02" arrival="109.40" arrivalLane="E1_1" arrivalPos="127.51" arrivalPosLat="0.00" arrivalSpeed="14.22" duration="30.00" routeLength="258.47" waitingTime="0.00" waitingCount="0" stopTime="0.00" timeLoss="10.72" rerouteNo="0" devices="tripinfo_f_8.5 routing_f_8.5" vType="DEFAULT_VEHTYPE" speedFactor="1.03" vaporized=""/>
    <tripinfo id="f_7.4" depart="74.75" departLane="E6_1" departPos="5.10" departPosLat="0.00" departSpeed="0.00" departDelay="0.02" arrival="109.85" arrivalLane="E1_2" arrivalPos="127.51" arrivalPosLat="0.00" arrivalSpeed="15.49" duration="35.10" routeLength="277.23" waitingTime="1.00" waitingCount="1" stopTime="0.00" timeLoss="17.24" rerouteNo="0" devices="tripinfo_f_7.4 routing_f_7.4" vType="DEFAULT_VEHTYPE" speedFactor="1.12" vaporized=""/>
    <tripinfo id="f_8.6" depart="82.05" departLane="E4_1" departPos="5.10" departPosLat="0.00" departSpeed="0.00" departDelay="1.65" arrival="110.90" arrivalLane="E1_1" arrivalPos="127.51" arrivalPosLat="0.00" arrivalSpeed="15.04" duration="28.85" routeLength="258.47" waitingTime="0.00" waitingCount="0" stopTime="0.00" timeLoss="10.59" rerouteNo="0" devices="tripinfo_f_8.6 routing_f_8.6" vType="DEFAULT_VEHTYPE" speedFactor="1.09" vaporized=""/>
    <tripinfo id="f_5.1" depart="88.65" departLane="E6_1" departPos="5.10" departPosLat="0.00" departSpeed="0.00" departDelay="0.01" arrival="112.50" arrivalLane="E2.30_1" arrivalPos="126.83" arrivalPosLat="0.00" arrivalSpeed="14.45" duration="23.85" routeLength="253.57" waitingTime="0.00" waitingCount="0" stopTime="0.00" timeLoss="5.14" rerouteNo="0" devices="tripinfo_f_5.1 routing_f_5.1" vType="DEFAULT_VEHTYPE" speedFactor="1.04" vaporized=""/>
    <tripinfo id="f_4.10" depart="76.65" departLane="E3_2" departPos="5.10" departPosLat="0.00" departSpeed="0.00" departDelay="0.00" arrival="124.10" arrivalLane="E1_1" arrivalPos="127.51" arrivalPosLat="-0.00" arrivalSpeed="14.33" duration="47.45" routeLength="298.95" waitingTime="15.75" waitingCount="1" stopTime="0.00" timeLoss="26.64" rerouteNo="0" devices="tripinfo_f_4.10 routing_f_4.10" vType="DEFAULT_VEHTYPE" speedFactor="1.03" vaporized=""/>
    <tripinfo id="f_4.9" depart="66.30" departLane="E3_2" departPos="5.10" departPosLat="0.00" departSpeed="0.00" departDelay="0.05" arrival="124.45" arrivalLane="E1_2" arrivalPos="127.51" arrivalPosLat="-0.07" arrivalSpeed="13.88" duration="58.15" routeLength="298.95" waitingTime="28.20" waitingCount="1" stopTime="0.00" timeLoss="36.62" rerouteNo="0" devices="tripinfo_f_4.9 routing_f_4.9" vType="DEFAULT_VEHTYPE" speedFactor="1.00" vaporized=""/>
    <tripinfo id="f_0.4" depart="82.10" departLane="E0_1" departPos="5.10" departPosLat="0.00" departSpeed="0.00" departDelay="0.02" arrival="124.45" arrivalLane="E7_1" arrivalPos="123.31" arrivalPosLat="0.00" arrivalSpeed="14.23" duration="42.35" routeLength="279.76" waitingTime="13.20" waitingCount="1" stopTime="0.00" timeLoss="22.68" rerouteNo="1" devices="tripinfo_f_0.4 routing_f_0.4" vType="DEFAULT_VEHTYPE" speedFactor="1.03" vaporized=""/>
    <tripinfo id="f_1.22" depart="75.15" departLane="E0_2" departPos="5.10" departPosLat="0.00" departSpeed="0.00" departDelay="8.32" arrival="125.40" arrivalLane="E2.30_1" arrivalPos="126.83" arrivalPosLat="-0.00" arrivalSpeed="12.16" duration="50.25" routeLength="288.94" waitingTime="19.45" waitingCount="1" stopTime="0.00" timeLoss="26.57" rerouteNo="1" devices="tripinfo_f_1.22 routing_f_1.22" vType="DEFAULT_VEHTYPE" speedFactor="0.88" vaporized=""/>
    <tripinfo id="f_0.5" depart="84.75" departLane="E0_1" departPos="5.10" departPosLat="0.00" departSpeed="0.00" departDelay="2.50" arrival="126.25" arrivalLane="E7_1" arrivalPos="123.31" arrivalPosLat="0.00" arrivalSpeed="14.44" duration="41.50" routeLength="279.76" waitingTime="7.60" waitingCount="1" stopTime="0.00" timeLoss="22.14" rerouteNo="1" devices="tripinfo_f_0.5 routing_f_0.5" vType="DEFAULT_VEHTYPE" speedFactor="1.04" vaporized=""/>
    <tripinfo id="f_1.23" depart="77.75" departLane="E0_2" departPos="5.10" departPosLat="0.00" departSpeed="0.00" departDelay="5.58" arrival="126.95" arrivalLane="E2.30_1" arrivalPos="126.83" arrivalPosLat="-0.00" arrivalSpeed="13.05" duration="49.20" routeLength="288.94" waitingTime="14.25" waitingCount="1" stopTime="0.00" timeLoss="27.03" rerouteNo="1" devices="tripinfo_f_1.23 routing_f_1.23" vType="DEFAULT_VEHTYPE" speedFactor="0.94" vaporized=""/>
    <tripinfo id="f_4.11" depart="84.15" departLane="E3_2" departPos="5.10" departPosLat="0.00" departSpeed="0.00" departDelay="0.05" arrival="127.50" arrivalLane="E1_1" arrivalPos="127.51" arrivalPosLat="0.04" arrivalSpeed="11.66" duration="43.35" routeLength="298.95" waitingTime="6.65" waitingCount="1" stopTime="0.00" timeLoss="17.82" rerouteNo="0" devices="tripinfo_f_4.11 routing_f_4.11" vType="DEFAULT_VEHTYPE" speedFactor="0.84" vaporized=""/>
    <tripinfo id="f_1.24" depart="80.40" departLane="E0_2" departPos="5.10" departPosLat="0.00" departSpeed="0.00" departDelay="2.30" arrival="127.75" arrivalLane="E2.30_2" arrivalPos="126.83" arrivalPosLat="-0.00" arrivalSpeed="12.98" duration="47.35" routeLength="288.94" waitingTime="11.80" waitingCount="1" stopTime="0.00" timeLoss="25.09" rerouteNo="1" devices="tripinfo_f_1.24 routing_f_1.24" vType="DEFAULT_VEHTYPE" speedFactor="0.94" vaporized=""/>
    <tripinfo id="f_1.26" depart="88.55" departLane="E0_2" departPos="5.10" departPosLat="0.00" departSpeed="0.00" departDelay="0.04" arrival="128.55" arrivalLane="E2.30_1" arrivalPos="126.83" arrivalPosLat="-0.00" arrivalSpeed="14.98" duration="40.00" routeLength="288.94" waitingTime="6.20" waitingCount="1" stopTime="0.00" timeLoss="20.72" rerouteNo="1" devices="tripinfo_f_1.26 routing_f_1.26" vType="DEFAULT_VEHTYPE" speedFactor="1.08" vaporized=""/>
    <tripinfo id="f_4.12" depart="98.45" departLane="E3_2" departPos="5.10" departPosLat="0.00" departSpeed="0.00" departDelay="0.04" arrival="129.05" arrivalLane="E1_2" arrivalPos="127.51" arrivalPosLat="0.00" arrivalSpeed="12.04" duration="30.60" routeLength="298.95" waitingTime="0.00" waitingCount="0" stopTime="0.00" timeLoss="5.83" rerouteNo="0" devices="tripinfo_f_4.12 routing_f_4.12" vType="DEFAULT_VEHTYPE" speedFactor="0.87" vaporized=""/>