<?xml version="1.0" encoding="UTF-8"?>

<!-- generated on 2025-10-16 12:15:34 by Eclipse SUMO GUI Version 1.24.0
<sumoConfiguration xmlns:xsi="http://www.w3.org/2001/XMLSchema-instance" xsi:noNamespaceSchemaLocation="http://sumo.dlr.de/xsd/sumoConfiguration.xsd">

    <input>
        <net-file value="C:\NIKOLA\SUMO\belgrade\static_signal_control\belgrade_intersection.net.xml"/>
        <route-files value="C:\NIKOLA\SUMO\belgrade\static_signal_control\belgrade_intersection.rou.xml"/>
    </input>

    <output>
        <tripinfo-output value="C:\NIKOLA\SUMO\belgrade\static_signal_control\tripinfo.xml"/>
        <statistic-output value="C:/NIKOLA/SUMO/belgrade/static_signal_control/statistics.xml"/>
    </output>

    <time>
        <step-length value="0.05"/>
    </time>

    <processing>
        <lateral-resolution value="0.1"/>
    </processing>

    <report>
        <duration-log.statistics value="true"/>
    </report>

    <traci_server>
        <remote-port value="63360"/>
    </traci_server>

    <gui_only>
        <delay value="1000"/>
    </gui_only>

</sumoConfiguration>
-->

<tripinfos xmlns:xsi="http://www.w3.org/2001/XMLSchema-instance" xsi:noNamespaceSchemaLocation="http://sumo.dlr.de/xsd/tripinfo_file.xsd">
    <tripinfo id="f_1.0" depart="1.10" departLane="E0_2" departPos="5.10" departPosLat="0.00" departSpeed="0.00" departDelay="0.03" arrival="23.45" arrivalLane="E2.30_2" arrivalPos="126.83" arrivalPosLat="0.00" arrivalSpeed="15.43" duration="22.35" routeLength="288.94" waitingTime="0.00" waitingCount="0" stopTime="0.00" timeLoss="3.69" rerouteNo="1" devices="tripinfo_f_1.0 routing_f_1.0" vType="DEFAULT_VEHTYPE" speedFactor="1.11" vaporized=""/>
    <tripinfo id="f_0.0" depart="2.60" departLane="E0_1" departPos="5.10" departPosLat="0.00" departSpeed="0.00" departDelay="0.00" arrival="28.00" arrivalLane="E7_1" arrivalPos="123.31" arrivalPosLat="0.00" arrivalSpeed="13.50" duration="25.40" routeLength="279.76" waitingTime="0.00" waitingCount="0" stopTime="0.00" timeLoss="4.70" rerouteNo="1" devices="tripinfo_f_0.0 routing_f_0.0" vType="DEFAULT_VEHTYPE" speedFactor="0.97" vaporized=""/>
    <tripinfo id="f_1.1" depart="3.70" departLane="E0_2" departPos="5.10" departPosLat="0.00" departSpeed="0.00" departDelay="1.39" arrival="30.00" arrivalLane="E2.30_2" arrivalPos="126.83" arrivalPosLat="0.00" arrivalSpeed="12.51" duration="26.30" routeLength="288.94" waitingTime="0.00" waitingCount="0" stopTime="0.00" timeLoss="3.18" rerouteNo="1" devices="tripinfo_f_1.1 routing_f_1.1" vType="DEFAULT_VEHTYPE" speedFactor="0.90" vaporized=""/>
    <tripinfo id="f_1.2" depart="6.35" departLane="E0_2" departPos="5.10" departPosLat="0.00" departSpeed="0.00" departDelay="1.63" arrival="31.45" arrivalLane="E2.30_2" arrivalPos="126.83" arrivalPosLat="0.00" arrivalSpeed="15.53" duration="25.10" routeLength="288.94" waitingTime="0.00" waitingCount="0" stopTime="0.00" timeLoss="7.43" rerouteNo="1" devices="tripinfo_f_1.2 routing_f_1.2" vType="DEFAULT_VEHTYPE" speedFactor="1.18" vaporized=""/>
    <tripinfo id="f_1.3" depart="8.95" departLane="E0_2" departPos="5.10" departPosLat="0.00" departSpeed="0.00" departDelay="0.04" arrival="33.25" arrivalLane="E2.30_2" arrivalPos="126.83" arrivalPosLat="0.00" arrivalSpeed="13.82" duration="24.30" routeLength="288.94" waitingTime="0.00" waitingCount="0" stopTime="0.00" timeLoss="3.43" rerouteNo="1" devices="tripinfo_f_1.3 routing_f_1.3" vType="DEFAULT_VEHTYPE" speedFactor="1.00" vaporized=""/>
    <tripinfo id="f_4.0" depart="18.30" departLane="E3_2" departPos="5.10" departPosLat="0.00" departSpeed="0.00" departDelay="0.01" arrival="41.70" arrivalLane="E1_2" arrivalPos="127.51" arrivalPosLat="0.00" arrivalSpeed="15.22" duration="23.40" routeLength="298.95" waitingTime="0.00" waitingCount="0" stopTime="0.00" timeLoss="3.76" rerouteNo="0" devices="tripinfo_f_4.0 routing_f_4.0" vType="DEFAULT_VEHTYPE" speedFactor="1.10" vaporized=""/>
    <tripinfo id="f_1.4" depart="18.45" departLane="E0_2" departPos="5.10" departPosLat="0.00" departSpeed="0.00" departDelay="0.69" arrival="45.40" arrivalLane="E2.30_1" arrivalPos="126.83" arrivalPosLat="-0.00" arrivalSpeed="11.99" duration="26.95" routeLength="288.94" waitingTime="0.00" waitingCount="0" stopTime="0.00" timeLoss="2.88" rerouteNo="1" devices="tripinfo_f_1.4 routing_f_1.4" vType="DEFAULT_VEHTYPE" speedFactor="0.87" vaporized=""/>
    <tripinfo id="f_0.1" depart="20.50" departLane="E0_1" departPos="5.10" departPosLat="0.00" departSpeed="0.00" departDelay="0.04" arrival="46.05" arrivalLane="E7_1" arrivalPos="123.31" arrivalPosLat="0.00" arrivalSpeed="13.30" duration="25.55" routeLength="279.76" waitingTime="0.00" waitingCount="0" stopTime="0.00" timeLoss="4.52" rerouteNo="1" devices="tripinfo_f_0.1 routing_f_0.1" vType="DEFAULT_VEHTYPE" speedFactor="0.96" vaporized=""/>
    <tripinfo id="f_4.1" depart="21.00" departLane="E3_2" departPos="5.10" departPosLat="0.00" departSpeed="0.00" departDelay="0.04" arrival="46.15" arrivalLane="E1_1" arrivalPos="127.51" arrivalPosLat="1.17" arrivalSpeed="13.79" duration="25.15" routeLength="298.95" waitingTime="0.00" waitingCount="0" stopTime="0.00" timeLoss="3.46" rerouteNo="0" devices="tripinfo_f_4.1 routing_f_4.1" vType="DEFAULT_VEHTYPE" speedFactor="0.99" vaporized=""/>
    <tripinfo id="f_1.5" depart="21.05" departLane="E0_2" departPos="5.10" departPosLat="0.00" departSpeed="0.00" departDelay="1.19" arrival="46.60" arrivalLane="E2.30_2" arrivalPos="126.83" arrivalPosLat="0.00" arrivalSpeed="12.92" duration="25.55" routeLength="288.94" waitingTime="0.00" waitingCount="0" stopTime="0.00" timeLoss="3.20" rerouteNo="1" devices="tripinfo_f_1.5 routing_f_1.5" vType="DEFAULT_VEHTYPE" speedFactor="0.93" vaporized=""/>
    <tripinfo id="f_1.6" depart="23.65" departLane="E0_2" departPos="5.10" departPosLat="0.00" departSpeed="0.00" departDelay="3.59" arrival="48.75" arrivalLane="E2.30_2" arrivalPos="126.83" arrivalPosLat="0.00" arrivalSpeed="13.17" duration="25.10" routeLength="288.94" waitingTime="0.00" waitingCount="0" stopTime="0.00" timeLoss="3.27" rerouteNo="1" devices="tripinfo_f_1.6 routing_f_1.6" vType="DEFAULT_VEHTYPE" speedFactor="0.95" vaporized=""/>
    <tripinfo id="f_0.2" depart="23.15" departLane="E0_1" departPos="5.10" departPosLat="0.00" departSpeed="0.00" departDelay="0.01" arrival="48.80" arrivalLane="E7_1" arrivalPos="123.31" arrivalPosLat="0.00" arrivalSpeed="13.59" duration="25.65" routeLength="279.76" waitingTime="0.00" waitingCount="0" stopTime="0.00" timeLoss="5.10" rerouteNo="1" devices="tripinfo_f_0.2 routing_f_0.2" vType="DEFAULT_VEHTYPE" speedFactor="0.98" vaporized=""/>
    <tripinfo id="f_1.7" depart="26.30" departLane="E0_2" departPos="5.10" departPosLat="0.00" departSpeed="0.00" departDelay="5.63" arrival="51.25" arrivalLane="E2.30_2" arrivalPos="126.83" arrivalPosLat="0.00" arrivalSpeed="13.30" duration="24.95" routeLength="288.94" waitingTime="0.00" waitingCount="0" stopTime="0.00" timeLoss="3.25" rerouteNo="1" devices="tripinfo_f_1.7 routing_f_1.7" vType="DEFAULT_VEHTYPE" speedFactor="0.96" vaporized=""/>
    <tripinfo id="f_1.8" depart="28.90" departLane="E0_2" departPos="5.10" departPosLat="0.00" departSpeed="0.00" departDelay="6.32" arrival="52.70" arrivalLane="E2.30_2" arrivalPos="126.83" arrivalPosLat="0.00" arrivalSpeed="16.16" duration="23.80" routeLength="288.94" waitingTime="0.00" waitingCount="0" stopTime="0.00" timeLoss="6.77" rerouteNo="1" devices="tripinfo_f_1.8 routing_f_1.8" vType="DEFAULT_VEHTYPE" speedFactor="1.22" vaporized=""/>
    <tripinfo id="f_8.0" depart="4.05" departLane="E4_1" departPos="5.10" departPosLat="0.00" departSpeed="0.00" departDelay="0.04" arrival="64.05" arrivalLane="E1_1" arrivalPos="127.51" arrivalPosLat="0.00" arrivalSpeed="13.75" duration="60.00" routeLength="258.47" waitingTime="32.60" waitingCount="1" stopTime="0.00" timeLoss="39.98" rerouteNo="0" devices="tripinfo_f_8.0 routing_f_8.0" vType="DEFAULT_VEHTYPE" speedFactor="0.99" vaporized=""/>
    <tripinfo id="f_8.1" depart="11.80" departLane="E4_1" departPos="5.10" departPosLat="0.00" departSpeed="0.00" departDelay="0.03" arrival="65.50" arrivalLane="E1_1" arrivalPos="127.51" arrivalPosLat="0.00" arrivalSpeed="15.68" duration="53.70" routeLength="258.47" waitingTime="21.95" waitingCount="1" stopTime="0.00" timeLoss="36.18" rerouteNo="0" devices="tripinfo_f_8.1 routing_f_8.1" vType="DEFAULT_VEHTYPE" speedFactor="1.13" vaporized=""/>
    <tripinfo id="f_7.0" depart="11.10" departLane="E6_1" departPos="5.10" departPosLat="0.00" departSpeed="0.00" departDelay="0.02" arrival="65.95" arrivalLane="E1_2" arrivalPos="127.51" arrivalPosLat="0.00" arrivalSpeed="14.60" duration="54.85" routeLength="277.23" waitingTime="26.05" waitingCount="1" stopTime="0.00" timeLoss="35.91" rerouteNo="0" devices="tripinfo_f_7.0 routing_f_7.0" vType="DEFAULT_VEHTYPE" speedFactor="1.05" vaporized=""/>
    <tripinfo id="f_7.1" depart="13.75" departLane="E6_1" departPos="5.10" departPosLat="0.00" departSpeed="0.00" departDelay="0.24" arrival="68.50" arrivalLane="E1_2" arrivalPos="127.51" arrivalPosLat="0.00" arrivalSpeed="13.24" duration="54.75" routeLength="277.23" waitingTime="20.25" waitingCount="1" stopTime="0.00" timeLoss="33.91" rerouteNo="0" devices="tripinfo_f_7.1 routing_f_7.1" vType="DEFAULT_VEHTYPE" speedFactor="0.96" vaporized=""/>
    <tripinfo id="f_5.0" depart="17.85" departLane="E6_1" departPos="5.10" departPosLat="0.00" departSpeed="0.00" departDelay="0.05" arrival="69.20" arrivalLane="E2.30_1" arrivalPos="126.83" arrivalPosLat="0.00" arrivalSpeed="12.12" duration="51.35" routeLength="253.57" waitingTime="16.65" waitingCount="1" stopTime="0.00" timeLoss="29.06" rerouteNo="0" devices="tripinfo_f_5.0 routing_f_5.0" vType="DEFAULT_VEHTYPE" speedFactor="0.87" vaporized=""/>
    <tripinfo id="f_8.2" depart="27.25" departLane="E4_1" departPos="5.10" departPosLat="0.00" departSpeed="0.00" departDelay="0.02" arrival="69.70" arrivalLane="E1_1" arrivalPos="127.51" arrivalPosLat="0.00" arrivalSpeed="11.84" duration="42.45" routeLength="258.47" waitingTime="6.90" waitingCount="1" stopTime="0.00" timeLoss="19.28" rerouteNo="0" devices="tripinfo_f_8.2 routing_f_8.2" vType="DEFAULT_VEHTYPE" speedFactor="0.86" vaporized=""/>
    <tripinfo id="f_7.2" depart="20.50" departLane="E6_1" departPos="5.10" departPosLat="0.00" departSpeed="0.00" departDelay="0.04" arrival="70.75" arrivalLane="E1_2" arrivalPos="127.51" arrivalPosLat="0.00" arrivalSpeed="16.92" duration="50.25" routeLength="277.23" waitingTime="14.45" waitingCount="1" stopTime="0.00" timeLoss="33.85" rerouteNo="0" devices="tripinfo_f_7.2 routing_f_7.2" vType="DEFAULT_VEHTYPE" speedFactor="1.22" vaporized=""/>
    <tripinfo id="f_8.3" depart="30.90" departLane="E4_1" departPos="5.10" departPosLat="0.00" departSpeed="0.00" departDelay="0.01" arrival="71.25" arrivalLane="E1_1" arrivalPos="127.51" arrivalPosLat="0.00" arrivalSpeed="13.13" duration="40.35" routeLength="258.47" waitingTime="4.10" waitingCount="1" stopTime="0.00" timeLoss="19.43" rerouteNo="0" devices="tripinfo_f_8.3 routing_f_8.3" vType="DEFAULT_VEHTYPE" speedFactor="0.95" vaporized=""/>
    <tripinfo id="f_7.3" depart="37.40" departLane="E6_1" departPos="5.10" departPosLat="0.00" departSpeed="0.00" departDelay="0.05" arrival="73.40" arrivalLane="E1_2" arrivalPos="127.51" arrivalPosLat="0.00" arrivalSpeed="14.58" duration="36.00" routeLength="277.23" waitingTime="0.00" waitingCount="0" stopTime="0.00" timeLoss="17.06" rerouteNo="0" devices="tripinfo_f_7.3 routing_f_7.3" vType="DEFAULT_VEHTYPE" speedFactor="1.05" vaporized=""/>
    <tripinfo id="f_8.4" depart="33.55" departLane="E4_1" departPos="5.10" departPosLat="0.00" departSpeed="0.00" departDelay="2.05" arrival="73.65" arrivalLane="E1_1" arrivalPos="127.51" arrivalPosLat="0.00" arrivalSpeed="12.57" duration="40.10" routeLength="258.47" waitingTime="1.95" waitingCount="1" stopTime="0.00" timeLoss="18.30" rerouteNo="0" devices="tripinfo_f_8.4 routing_f_8.4" vType="DEFAULT_VEHTYPE" speedFactor="0.91" vaporized=""/>
    <tripinfo id="f_6.0" depart="67.95" departLane="E6_1" departPos="5.10" departPosLat="0.00" departSpeed="0.00" departDelay="0.02" arrival="90.15" arrivalLane="E5_1" arrivalPos="143.54" arrivalPosLat="0.00" arrivalSpeed="16.19" duration="22.20" routeLength="295.35" waitingTime="0.00" waitingCount="0" stopTime="0.00" timeLoss="3.99" rerouteNo="0" devices="tripinfo_f_6.0 routing_f_6.0" vType="DEFAULT_VEHTYPE" speedFactor="1.17" vaporized=""/>
    <tripinfo id="f_7.4" depart="74.75" departLane="E6_1" departPos="5.10" departPosLat="0.00" departSpeed="0.00" departDelay="0.03" arrival="98.35" arrivalLane="E1_2" arrivalPos="127.51" arrivalPosLat="0.00" arrivalSpeed="15.52" duration="23.60" routeLength="277.23" waitingTime="0.00" waitingCount="0" stopTime="0.00" timeLoss="5.78" rerouteNo="0" devices="tripinfo_f_7.4 routing_f_7.4" vType="DEFAULT_VEHTYPE" speedFactor="1.12" vaporized=""/>
    <tripinfo id="f_8.5" depart="79.45" departLane="E4_1" departPos="5.10" departPosLat="0.00" departSpeed="0.00" departDelay="0.04" arrival="103.85" arrivalLane="E1_1" arrivalPos="127.51" arrivalPosLat="0.00" arrivalSpeed="14.28" duration="24.40" routeLength="258.47" waitingTime="0.00" waitingCount="0" stopTime="0.00" timeLoss="5.14" rerouteNo="0" devices="tripinfo_f_8.5 routing_f_8.5" vType="DEFAULT_VEHTYPE" speedFactor="1.03" vaporized=""/>
    <tripinfo id="f_1.9" depart="33.40" departLane="E0_2" departPos="5.10" departPosLat="0.00" departSpeed="0.00" departDelay="0.02" arrival="113.30" arrivalLane="E2.30_2" arrivalPos="126.83" arrivalPosLat="0.00" arrivalSpeed="15.87" duration="79.90" routeLength="288.94" waitingTime="52.20" waitingCount="1" stopTime="0.00" timeLoss="61.68" rerouteNo="1" devices="tripinfo_f_1.9 routing_f_1.9" vType="DEFAULT_VEHTYPE" speedFactor="1.14" vaporized=""/>
    <tripinfo id="f_1.10" depart="36.00" departLane="E0_2" departPos="5.10" departPosLat="0.00" departSpeed="0.00" departDelay="1.42" arrival="114.05" arrivalLane="E2.30_1" arrivalPos="126.83" arrivalPosLat="-0.00" arrivalSpeed="14.54" duration="78.05" routeLength="288.94" waitingTime="45.30" waitingCount="1" stopTime="0.00" timeLoss="58.19" rerouteNo="1" devices="tripinfo_f_1.10 routing_f_1.10" vType="DEFAULT_VEHTYPE" speedFactor="1.05" vaporized=""/>
    <tripinfo id="f_1.11" depart="38.60" departLane="E0_2" departPos="5.10" departPosLat="0.00" departSpeed="0.00" departDelay="0.54" arrival="115.45" arrivalLane="E2.30_1" arrivalPos="126.83" arrivalPosLat="-0.00" arrivalSpeed="15.79" duration="76.85" routeLength="288.94" waitingTime="41.85" waitingCount="1" stopTime="0.00" timeLoss="58.56" rerouteNo="1" devices="tripinfo_f_1.11 routing_f_1.11" vType="DEFAULT_VEHTYPE" speedFactor="1.14" vaporized=""/>
    <tripinfo id="f_1.12" depart="44.60" departLane="E0_2" departPos="5.10" departPosLat="0.00" departSpeed="0.00" departDelay="0.00" arrival="115.45" arrivalLane="E2.30_2" arrivalPos="126.83" arrivalPosLat="0.00" arrivalSpeed="14.03" duration="70.85" routeLength="288.94" waitingTime="37.60" waitingCount="1" stopTime="0.00" timeLoss="50.27" rerouteNo="1" devices="tripinfo_f_1.12 routing_f_1.12" vType="DEFAULT_VEHTYPE" speedFactor="1.01" vaporized=""/>
    <tripinfo id="f_1.13" depart="49.35" departLane="E0_2" departPos="5.10" departPosLat="0.00" departSpeed="0.00" departDelay="0.03" arrival="117.20" arrivalLane="E2.30_2" arrivalPos="126.83" arrivalPosLat="0.00" arrivalSpeed="13.37" duration="67.85" routeLength="288.94" waitingTime="33.55" waitingCount="1" stopTime="0.00" timeLoss="46.26" rerouteNo="1" devices="tripinfo_f_1.13 routing_f_1.13" vType="DEFAULT_VEHTYPE" speedFactor="0.96" vaporized=""/>
    <tripinfo id="f_0.3" depart="50.10" departLane="E0_1" departPos="5.10" departPosLat="0.00" departSpeed="0.00" departDelay="0.00" arrival="117.40" arrivalLane="E7_1" arrivalPos="123.31" arrivalPosLat="0.00" arrivalSpeed="14.04" duration="67.30" routeLength="279.76" waitingTime="33.05" waitingCount="1" stopTime="0.00" timeLoss="47.41" rerouteNo="1" devices="tripinfo_f_0.3 routing_f_0.3" vType="DEFAULT_VEHTYPE" speedFactor="1.01" vaporized=""/>
    <tripinfo id="f_1.19" depart="67.30" departLane="E0_2" departPos="5.10" departPosLat="0.00" departSpeed="0.00" departDelay="5.97" arrival="118.45" arrivalLane="E2.30_1" arrivalPos="126.83" arrivalPosLat="-0.00" arrivalSpeed="14.17" duration="51.15" routeLength="288.94" waitingTime="7.60" waitingCount="2" stopTime="0.00" timeLoss="30.78" rerouteNo="1" devices="tripinfo_f_1.19 routing_f_1.19" vType="DEFAULT_VEHTYPE" speedFactor="1.02" vaporized=""/>
    <tripinfo id="f_1.14" depart="51.95" departLane="E0_2" departPos="5.10" departPosLat="0.00" departSpeed="0.00" departDelay="0.87" arrival="118.60" arrivalLane="E2.30_2" arrivalPos="126.83" arrivalPosLat="0.00" arrivalSpeed="15.90" duration="66.65" routeLength="288.94" waitingTime="31.30" waitingCount="1" stopTime="0.00" timeLoss="49.49" rerouteNo="1" devices="tripinfo_f_1.14 routing_f_1.14" vType="DEFAULT_VEHTYPE" speedFactor="1.21" vaporized=""/>
    <tripinfo id="f_2.0" depart="15.80" departLane="E0_2" departPos="5.10" departPosLat="0.00" departSpeed="0.00" departDelay="0.01" arrival="118.70" arrivalLane="E5_1" arrivalPos="143.54" arrivalPosLat="0.00" arrivalSpeed="10.27" duration="102.90" routeLength="289.23" waitingTime="67.60" waitingCount="1" stopTime="0.00" timeLoss="73.20" rerouteNo="1" devices="tripinfo_f_2.0 routing_f_2.0" vType="DEFAULT_VEHTYPE" speedFactor="0.74" vaporized=""/>
    <tripinfo id="f_1.20" depart="69.95" departLane="E0_2" departPos="5.10" departPosLat="0.00" departSpeed="0.00" departDelay="4.91" arrival="119.90" arrivalLane="E2.30_1" arrivalPos="126.83" arrivalPosLat="0.00" arrivalSpeed="14.74" duration="49.95" routeLength="288.94" waitingTime="5.15" waitingCount="1" stopTime="0.00" timeLoss="30.38" rerouteNo="1" devices="tripinfo_f_1.20 routing_f_1.20" vType="DEFAULT_VEHTYPE" speedFactor="1.06" vaporized=""/>
    <tripinfo id="f_1.15" depart="54.60" departLane="E0_2" departPos="5.10" departPosLat="0.00" departSpeed="0.00" departDelay="2.86" arrival="120.05" arrivalLane="E2.30_2" arrivalPos="126.83" arrivalPosLat="0.00" arrivalSpeed="14.70" duration="65.45" routeLength="288.94" waitingTime="29.35" waitingCount="1" stopTime="0.00" timeLoss="45.81" rerouteNo="1" devices="tripinfo_f_1.15 routing_f_1.15" vType="DEFAULT_VEHTYPE" speedFactor="1.06" vaporized=""/>
    <tripinfo id="f_1.21" depart="72.55" departLane="E0_2" departPos="5.10" departPosLat="0.00" departSpeed="0.00" departDelay="5.79" arrival="121.50" arrivalLane="E2.30_1" arrivalPos="126.83" arrivalPosLat="-0.00" arrivalSpeed="13.86" duration="48.95" routeLength="288.94" waitingTime="3.85" waitingCount="1" stopTime="0.00" timeLoss="28.12" rerouteNo="1" devices="tripinfo_f_1.21 routing_f_1.21" vType="DEFAULT_VEHTYPE" speedFactor="1.00" vaporized=""/>
    <tripinfo id="f_1.16" depart="59.40" departLane="E0_2" departPos="5.10" departPosLat="0.00" departSpeed="0.00" departDelay="0.04" arrival="121.80" arrivalLane="E2.30_2" arrivalPos="126.83" arrivalPosLat="0.00" arrivalSpeed="13.27" duration="62.40" routeLength="288.94" waitingTime="26.35" waitingCount="1" stopTime="0.00" timeLoss="40.68" rerouteNo="1" devices="tripinfo_f_1.16 routing_f_1.16" vType="DEFAULT_VEHTYPE" speedFactor="0.96" vaporized=""/>
    <tripinfo id="f_0.4" depart="82.10" departLane="E0_1" departPos="5.10" departPosLat="0.00" departSpeed="0.00" departDelay="0.02" arrival="123.10" arrivalLane="E7_1" arrivalPos="123.31" arrivalPosLat="0.00" arrivalSpeed="14.23" duration="41.00" routeLength="279.76" waitingTime="2.50" waitingCount="1" stopTime="0.00" timeLoss="21.35" rerouteNo="1" devices="tripinfo_f_0.4 routing_f_0.4" vType="DEFAULT_VEHTYPE" speedFactor="1.03" vaporized=""/>
    <tripinfo id="f_1.17" depart="62.05" departLane="E0_2" departPos="5.10" departPosLat="0.00" departSpeed="0.00" departDelay="1.06" arrival="125.00" arrivalLane="E2.30_1" arrivalPos="126.83" arrivalPosLat="-0.00" arrivalSpeed="11.05" duration="62.95" routeLength="288.94" waitingTime="24.25" waitingCount="1" stopTime="0.00" timeLoss="36.93" rerouteNo="1" devices="tripinfo_f_1.17 routing_f_1.17" vType="DEFAULT_VEHTYPE" speedFactor="0.80" vaporized=""/>
    <tripinfo id="f_0.5" depart="84.75" departLane="E0_1" departPos="5.10" departPosLat="0.00" departSpeed="0.00" departDelay="2.50" arrival="125.05" arrivalLane="E7_1" arrivalPos="123.31" arrivalPosLat="0.00" arrivalSpeed="14.47" duration="40.30" routeLength="279.76" waitingTime="1.10" waitingCount="1" stopTime="0.00" timeLoss="20.95" rerouteNo="1" devices="tripinfo_f_0.5 routing_f_0.5" vType="DEFAULT_VEHTYPE" speedFactor="1.04" vaporized=""/>
    <tripinfo id="f_1.18" depart="64.70" departLane="E0_2" departPos="5.10" departPosLat="0.00" departSpeed="0.00" departDelay="3.50" arrival="125.85" arrivalLane="E2.30_2" arrivalPos="126.83" arrivalPosLat="0.00" arrivalSpeed="12.99" duration="61.15" routeLength="288.94" waitingTime="22.45" waitingCount="1" stopTime="0.00" timeLoss="38.92" rerouteNo="1" devices="tripinfo_f_1.18 routing_f_1.18" vType="DEFAULT_VEHTYPE" speedFactor="0.94" vaporized=""/>
    <tripinfo id="f_1.23" depart="77.80" departLane="E0_2" departPos="5.10" departPosLat="0.00" departSpeed="0.00" departDelay="5.55" arrival="127.10" arrivalLane="E2.30_1" arrivalPos="126.83" arrivalPosLat="-0.00" arrivalSpeed="13.03" duration="49.30" routeLength="288.94" waitingTime="3.95" waitingCount="1" stopTime="0.00" timeLoss="27.16" rerouteNo="1" devices="tripinfo_f_1.23 routing_f_1.23" vType="DEFAULT_VEHTYPE" speedFactor="0.94" vaporized=""/>
    <tripinfo id="f_1.22" depart="75.20" departLane="E0_2" departPos="5.10" departPosLat="0.00" departSpeed="0.00" departDelay="8.30" arrival="127.70" arrivalLane="E2.30_2" arrivalPos="126.83" arrivalPosLat="-0.00" arrivalSpeed="12.19" duration="52.50" routeLength="288.94" waitingTime="11.75" waitingCount="1" stopTime="0.00" timeLoss="28.81" rerouteNo="1" devices="tripinfo_f_1.22 routing_f_1.22" vType="DEFAULT_VEHTYPE" speedFactor="0.88" vaporized=""/>
    <tripinfo id="f_1.24" depart="80.40" departLane="E0_2" departPos="5.10" departPosLat="0.00" departSpeed="0.00" departDelay="2.22" arrival="128.70" arrivalLane="E2.30_1" arrivalPos="126.83" arrivalPosLat="-0.00" arrivalSpeed="12.98" duration="48.30" routeLength="288.94" waitingTime="2.35" waitingCount="1" stopTime="0.00" timeLoss="26.02" rerouteNo="1" devices="tripinfo_f_1.24 routing_f_1.24" vType="DEFAULT_VEHTYPE" speedFactor="0.94" vaporized=""/>
    <tripinfo id="f_1.26" depart="88.65" departLane="E0_2" departPos="5.10" departPosLat="0.00" departSpeed="0.00" departDelay="0.05" arrival="129.15" arrivalLane="E2.30_2" arrivalPos="126.83" arrivalPosLat="-0.00" arrivalSpeed="14.94" duration="40.50" routeLength="288.94" waitingTime="0.00" waitingCount="0" stopTime="0.00" timeLoss="21.21" rerouteNo="1" devices="tripinfo_f_1.26 routing_f_1.26" vType="DEFAULT_VEHTYPE" speedFactor="1.08" vaporized=""/>
    <tripinfo id="f_1.25" depart="83.05" departLane="E0_2" departPos="5.10" departPosLat="0.00" departSpeed="0.00" departDelay="2.96" arrival="130.35" arrivalLane="E2.30_1" arrivalPos="126.83" arrivalPosLat="-0.00" arrivalSpeed="12.70" duration="47.30" routeLength="288.94" waitingTime="0.85" waitingCount="1" stopTime="0.00" timeLoss="24.55" rerouteNo="1" devices="tripinfo_f_1.25 routing_f_1.25" vType="DEFAULT_VEHTYPE" speedFactor="0.92" vaporized=""/>
    <tripinfo id="f_1.27" depart="91.30" departLane="E0_2" departPos="5.10" departPosLat="0.00" departSpeed="0.00" departDelay="0.91" arrival="130.65" arrivalLane="E2.30_2" arrivalPos="126.83" arrivalPosLat="0.00" arrivalSpeed="13.57" duration="39.35" routeLength="288.94" waitingTime="0.00" waitingCount="0" stopTime="0.00" timeLoss="18.05" rerouteNo="1" devices="tripinfo_f_1.27 routing_f_1.27" vType="DEFAULT_VEHTYPE" speedFactor="0.98" vaporized=""/>
    <tripinfo id="f_1.28" depart="100.05" departLane="E0_2" departPos="5.10" departPosLat="0.00" departSpeed="0.00" departDelay="0.02" arrival="132.05" arrivalLane="E2.30_2" arrivalPos="126.83" arrivalPosLat="0.00" arrivalSpeed="14.18" duration="32.00" routeLength="288.94" waitingTime="0.00" waitingCount="0" stopTime="0.00" timeLoss="11.71" rerouteNo="1" devices="tripinfo_f_1.28 routing_f_1.28" vType="DEFAULT_VEHTYPE" speedFactor="1.03" vaporized=""/>
    <tripinfo id="f_0.6" depart="108.35" departLane="E0_1" departPos="5.10" departPosLat="0.00" departSpeed="0.00" departDelay="0.02" arrival="133.40" arrivalLane="E7_1" arrivalPos="123.31" arrivalPosLat="0.00" arrivalSpeed="13.73" duration="25.05" routeLength="279.76" waitingTime="0.00" waitingCount="0" stopTime="0.00" timeLoss="4.76" rerouteNo="1" devices="tripinfo_f_0.6 routing_f_0.6" vType="DEFAULT_VEHTYPE" speedFactor="0.99" vaporized=""/>
    <tripinfo id="f_1.29" depart="102.65" departLane="E0_2" departPos="5.10" departPosLat="0.00" departSpeed="0.00" departDelay="1.59" arrival="134.15" arrivalLane="E2.30_2" arrivalPos="126.83" arrivalPosLat="0.00" arrivalSpeed="11.99" duration="31.50" routeLength="288.94" waitingTime="0.00" waitingCount="0" stopTime="0.00" timeLoss="7.48" rerouteNo="1" devices="tripinfo_f_1.29 routing_f_1.29" vType="DEFAULT_VEHTYPE" speedFactor="0.87" vaporized=""/>
    <tripinfo id="f_2.1" depart="85.70" departLane="E0_2" departPos="5.10" departPosLat="0.00" departSpeed="0.00" departDelay="1.58" arrival="134.25" arrivalLane="E5_1" arrivalPos="143.54" arrivalPosLat="-0.00" arrivalSpeed="9.41" duration="48.55" routeLength="289.23" waitingTime="0.00" waitingCount="0" stopTime="0.00" timeLoss="16.05" rerouteNo="1" devices="tripinfo_f_2.1 routing_f_2.1" vType="DEFAULT_VEHTYPE" speedFactor="0.68" vaporized=""/>
    <tripinfo id="f_1.30" depart="105.25" departLane="E0_2" departPos="5.10" departPosLat="0.00" departSpeed="0.00" departDelay="0.90" arrival="135.70" arrivalLane="E2.30_2" arrivalPos="126.83" arrivalPosLat="-0.02" arrivalSpeed="12.49" duration="30.45" routeLength="288.94" waitingTime="0.00" waitingCount="0" stopTime="0.00" timeLoss="7.38" rerouteNo="1" devices="tripinfo_f_1.30 routing_f_1.30" vType="DEFAULT_VEHTYPE" speedFactor="0.90" vaporized=""/>
    <tripinfo id="f_4.3" depart="40.15" departLane="E3_2" departPos="5.10" departPosLat="0.00" departSpeed="0.00" departDelay="0.04" arrival="135.95" arrivalLane="E1_2" arrivalPos="127.51" arrivalPosLat="0.00" arrivalSpeed="12.96" duration="95.80" routeLength="298.95" waitingTime="65.00" waitingCount="1" stopTime="0.00" timeLoss="72.79" rerouteNo="0" devices="tripinfo_f_4.3 routing_f_4.3" vType="DEFAULT_VEHTYPE" speedFactor="0.94" vaporized=""/>
    <tripinfo id="f_1.31" depart="110.80" departLane="E0_2" departPos="5.10" departPosLat="0.00" departSpeed="0.00" departDelay="1.57" arrival="137.30" arrivalLane="E2.30_2" arrivalPos="126.83" arrivalPosLat="0.00" arrivalSpeed="12.68" duration="26.50" routeLength="288.94" waitingTime="0.00" waitingCount="0" stopTime="0.00" timeLoss="3.77" rerouteNo="1" devices="tripinfo_f_1.31 routing_f_1.31" vType="DEFAULT_VEHTYPE" speedFactor="0.92" vaporized=""/>
    <tripinfo id="f_4.4" depart="45.30" departLane="E3_2" departPos="5.10" departPosLat="0.00" departSpeed="0.00" departDelay="0.00" arrival="137.55" arrivalLane="E1_2" arrivalPos="127.51" arrivalPosLat="0.00" arrivalSpeed="12.95" duration="92.25" routeLength="298.95" waitingTime="57.00" waitingCount="1" stopTime="0.00" timeLoss="69.20" rerouteNo="0" devices="tripinfo_f_4.4 routing_f_4.4" vType="DEFAULT_VEHTYPE" speedFactor="0.94" vaporized=""/>
    <tripinfo id="f_4.2" depart="29.40" departLane="E3_2" departPos="5.10" departPosLat="0.00" departSpeed="0.00" departDelay="0.03" arrival="138.15" arrivalLane="E1_1" arrivalPos="127.51" arrivalPosLat="-0.00" arrivalSpeed="10.64" duration="108.75" routeLength="298.95" waitingTime="74.40" waitingCount="1" stopTime="0.00" timeLoss="80.70" rerouteNo="0" devices="tripinfo_f_4.2 routing_f_4.2" vType="DEFAULT_VEHTYPE" speedFactor="0.77" vaporized=""/>
    <tripinfo id="f_3.0" depart="41.30" departLane="E3_1" departPos="5.10" departPosLat="0.00" departSpeed="0.00" departDelay="0.00" arrival="138.60" arrivalLane="E5_1" arrivalPos="143.54" arrivalPosLat="0.00" arrivalSpeed="14.24" duration="97.30" routeLength="312.58" waitingTime="61.25" waitingCount="1" stopTime="0.00" timeLoss="75.39" rerouteNo="0" devices="tripinfo_f_3.0 routing_f_3.0" vType="DEFAULT_VEHTYPE" speedFactor="1.03" vaporized=""/>
    <tripinfo id="f_1.32" depart="113.40" departLane="E0_2" departPos="5.10" departPosLat="0.00" departSpeed="0.00" departDelay="2.64" arrival="138.80" arrivalLane="E2.30_2" arrivalPos="126.83" arrivalPosLat="0.00" arrivalSpeed="13.64" duration="25.40" routeLength="288.94" waitingTime="0.00" waitingCount="0" stopTime="0.00" timeLoss="4.23" rerouteNo="1" devices="tripinfo_f_1.32 routing_f_1.32" vType="DEFAULT_VEHTYPE" speedFactor="0.98" vaporized=""/>
    <tripinfo id="f_4.5" depart="55.75" departLane="E3_2" departPos="5.10" departPosLat="0.00" departSpeed="0.00" departDelay="0.03" arrival="138.95" arrivalLane="E1_2" arrivalPos="127.51" arrivalPosLat="0.00" arrivalSpeed="14.40" duration="83.20" routeLength="298.95" waitingTime="47.75" waitingCount="1" stopTime="0.00" timeLoss="62.49" rerouteNo="0" devices="tripinfo_f_4.5 routing_f_4.5" vType="DEFAULT_VEHTYPE" speedFactor="1.04" vaporized=""/>
    <tripinfo id="f_3.1" depart="44.15" departLane="E3_1" departPos="5.10" departPosLat="0.00" departSpeed="0.00" departDelay="0.03" arrival="140.05" arrivalLane="E5_1" arrivalPos="143.54" arrivalPosLat="0.00" arrivalSpeed="16.44" duration="95.90" routeLength="312.58" waitingTime="58.75" waitingCount="1" stopTime="0.00" timeLoss="76.93" rerouteNo="0" devices="tripinfo_f_3.1 routing_f_3.1" vType="DEFAULT_VEHTYPE" speedFactor="1.19" vaporized=""/>